# uncomment to profile prompt startup with zprof
# zmodload zsh/zprof

# Save the location of the current completion dump file.
# Forces oh-my-zsh to use this location.
ZSH_COMPDUMP="${ZDOTDIR:-${HOME}}/.cache/zsh/zcompdump"

